REMARK SMILES COc1cc2ncnc(Nc3ccc(F)c(Cl)c3)c2cc1OCCCN1CCOCC1
REMARK SMILES IDX 22 1 23 2 24 3 25 4 26 5 27 6 28 7 29 8 31 9 30 10 21 11
REMARK SMILES IDX 3 12 20 13 4 14 19 15 5 16 9 17 6 18 8 19 7 20 2 21 1 22
REMARK SMILES IDX 10 23 11 25 18 26 12 27 16 28 13 29 14 30 17 31 15 32
REMARK H PARENT 10 24
ROOT
ATOM      1  O   UNL     1      11.296 -17.330   9.750  1.00  0.00    -0.490 OA
ENDROOT
BRANCH   1   2
ATOM      2  C   UNL     1      11.880 -17.427  11.059  1.00  0.00    +0.231 C 
BRANCH   2   3
ATOM      3  C   UNL     1      12.856 -18.579  11.120  1.00  0.00    +0.057 C 
BRANCH   3   4
ATOM      4  C   UNL     1      14.084 -18.453  10.247  1.00  0.00    +0.088 C 
BRANCH   4   5
ATOM      5  N   UNL     1      14.864 -19.718  10.489  1.00  0.00    -0.299 NA
ATOM      6  C   UNL     1      14.914 -20.557   9.209  1.00  0.00    +0.113 C 
ATOM      7  C   UNL     1      15.698 -21.839   9.504  1.00  0.00    +0.175 C 
ATOM      8  O   UNL     1      17.004 -21.531  10.024  1.00  0.00    -0.379 OA
ATOM      9  C   UNL     1      16.260 -19.450  11.036  1.00  0.00    +0.113 C 
ATOM     10  C   UNL     1      16.959 -20.791  11.255  1.00  0.00    +0.175 C 
ENDBRANCH   4   5
ENDBRANCH   3   4
ENDBRANCH   2   3
ENDBRANCH   1   2
BRANCH   1  11
ATOM     11  C   UNL     1      10.329 -16.349   9.561  1.00  0.00    +0.162 A 
ATOM     12  C   UNL     1       9.750 -16.260   8.248  1.00  0.00    +0.162 A 
ATOM     13  C   UNL     1       9.878 -15.461  10.574  1.00  0.00    +0.064 A 
ATOM     14  C   UNL     1       8.737 -15.278   7.999  1.00  0.00    +0.079 A 
ATOM     15  C   UNL     1       8.872 -14.494  10.318  1.00  0.00    +0.047 A 
ATOM     16  C   UNL     1       8.293 -14.403   9.002  1.00  0.00    +0.080 A 
ATOM     17  C   UNL     1       8.369 -13.582  11.280  1.00  0.00    +0.141 A 
ATOM     18  N   UNL     1       7.329 -13.506   8.696  1.00  0.00    -0.236 NA
ATOM     19  N   UNL     1       7.386 -12.675  10.951  1.00  0.00    -0.219 NA
ATOM     20  C   UNL     1       6.922 -12.686   9.683  1.00  0.00    +0.224 A 
BRANCH  12  21
ATOM     21  O   UNL     1      10.237 -17.166   7.322  1.00  0.00    -0.493 OA
ATOM     22  C   UNL     1       9.721 -17.170   5.991  1.00  0.00    +0.278 C 
ENDBRANCH  12  21
BRANCH  17  23
ATOM     23  N   UNL     1       8.879 -13.602  12.613  1.00  0.00    -0.340 N 
ATOM     24  H   UNL     1       9.819 -13.999  12.756  1.00  0.00    +0.168 HD
BRANCH  23  25
ATOM     25  C   UNL     1       8.197 -13.121  13.750  1.00  0.00    +0.041 A 
ATOM     26  C   UNL     1       6.772 -13.255  13.877  1.00  0.00    +0.049 A 
ATOM     27  C   UNL     1       8.921 -12.481  14.797  1.00  0.00    +0.029 A 
ATOM     28  C   UNL     1       6.099 -12.763  15.008  1.00  0.00    +0.078 A 
ATOM     29  C   UNL     1       8.242 -11.985  15.941  1.00  0.00    +0.043 A 
ATOM     30  C   UNL     1       6.835 -12.128  16.038  1.00  0.00    +0.141 A 
ATOM     31 Cl   UNL     1       4.395 -12.946  15.098  1.00  0.00    -0.081 Cl
ATOM     32  F   UNL     1       6.217 -11.651  17.120  1.00  0.00    -0.205 F 
ENDBRANCH  23  25
ENDBRANCH  17  23
ENDBRANCH   1  11
TORSDOF 8
