REMARK SMILES CN[C@@H]1C[C@H]2O[C@@](C)([C@@H]1OC)n1c3ccccc3c3c4c(c5c6c(n2c5c31)CCCC6)C(=O)N=C4
REMARK SMILES IDX 28 1 34 2 29 3 12 4 30 5 25 6 31 7 6 8 23 9 33 10 22 11
REMARK SMILES IDX 21 12 32 13 35 14 20 15 19 16 18 17 17 18 16 19 15 20 14 21
REMARK SMILES IDX 13 22 27 23 26 24 24 25 7 26 9 27 3 28 4 29 5 30 8 31 2 32
REMARK SMILES IDX 1 33 10 35 11 36
REMARK H PARENT 2 34
ROOT
ATOM      1  C   UNL     1     -49.187   0.903 -15.885  1.00  0.00    +0.054 C 
ATOM      2  N   UNL     1     -53.044   1.853 -22.061  1.00  0.00    -0.217 NA
ATOM      3  C   UNL     1     -50.454   1.240 -15.064  1.00  0.00    +0.007 C 
ATOM      4  N   UNL     1     -47.982  -0.928 -21.169  1.00  0.00    -0.307 N 
ATOM      5  C   UNL     1     -51.299   2.367 -15.695  1.00  0.00    +0.005 C 
ATOM      6  N   UNL     1     -48.795   0.136 -18.366  1.00  0.00    -0.316 N 
ATOM      7  C   UNL     1     -51.714   2.105 -17.165  1.00  0.00    +0.038 C 
ATOM      8  O   UNL     1     -46.613  -0.366 -19.216  1.00  0.00    -0.329 OA
ATOM      9  C   UNL     1     -50.655   1.317 -17.975  1.00  0.00    -0.018 A 
ATOM     10  O   UNL     1     -53.413   2.507 -19.978  1.00  0.00    -0.267 OA
ATOM     11  C   UNL     1     -50.645   1.013 -19.352  1.00  0.00    +0.019 A 
ATOM     12  C   UNL     1     -51.473   1.261 -20.495  1.00  0.00    +0.061 A 
ATOM     13  C   UNL     1     -52.693   1.916 -20.779  1.00  0.00    +0.278 C 
ATOM     14  C   UNL     1     -52.050   1.108 -22.812  1.00  0.00    +0.125 C 
ATOM     15  C   UNL     1     -51.050   0.760 -21.732  1.00  0.00    +0.017 A 
ATOM     16  C   UNL     1     -49.869   0.031 -21.886  1.00  0.00    +0.019 A 
ATOM     17  C   UNL     1     -49.260  -0.567 -22.986  1.00  0.00    +0.008 A 
ATOM     18  C   UNL     1     -49.633  -0.640 -24.341  1.00  0.00    +0.011 A 
ATOM     19  C   UNL     1     -48.831  -1.306 -25.261  1.00  0.00    +0.001 A 
ATOM     20  C   UNL     1     -47.663  -1.898 -24.799  1.00  0.00    +0.002 A 
ATOM     21  C   UNL     1     -47.293  -1.824 -23.455  1.00  0.00    +0.027 A 
ATOM     22  C   UNL     1     -48.083  -1.155 -22.512  1.00  0.00    +0.052 A 
ATOM     23  C   UNL     1     -49.059  -0.208 -20.783  1.00  0.00    +0.077 A 
ATOM     24  C   UNL     1     -49.454   0.283 -19.525  1.00  0.00    +0.076 A 
ATOM     25  C   UNL     1     -49.499   0.763 -17.393  1.00  0.00    +0.025 A 
ATOM     26  C   UNL     1     -46.773  -1.396 -20.255  1.00  0.00    +0.173 C 
ATOM     27  C   UNL     1     -46.854  -2.875 -19.694  1.00  0.00    +0.188 C 
ATOM     28  C   UNL     1     -46.590  -2.828 -18.132  1.00  0.00    +0.091 C 
ATOM     29  C   UNL     1     -47.423  -1.730 -17.369  1.00  0.00    +0.077 C 
ATOM     30  C   UNL     1     -47.616  -0.538 -18.329  1.00  0.00    +0.224 C 
ATOM     31  C   UNL     1     -45.449  -1.337 -21.030  1.00  0.00    +0.071 C 
ENDROOT
BRANCH  28  32
ATOM     32  N   UNL     1     -46.712  -4.182 -17.536  1.00  0.00    -0.314 NA
ATOM     33  C   UNL     1     -45.670  -5.113 -18.052  1.00  0.00    +0.101 C 
ATOM     34  H   UNL     1     -46.613  -4.106 -16.514  1.00  0.00    +0.122 HD
ENDBRANCH  28  32
BRANCH  27  35
ATOM     35  O   UNL     1     -47.991  -3.730 -20.247  1.00  0.00    -0.375 OA
ATOM     36  C   UNL     1     -47.653  -4.362 -21.551  1.00  0.00    +0.195 C 
ENDBRANCH  27  35
TORSDOF 2
