REMARK SMILES O=c1cc(-c2ccc(O)c(O)c2)oc2cc(O)cc(O)c12
REMARK SMILES IDX 4 1 3 2 2 3 1 4 21 5 19 6 18 7 16 8 15 9 14 10 13 11 5 12
REMARK SMILES IDX 6 13 7 14 8 15 12 16 10 17 9 18 11 20 20 22 17 24
REMARK H PARENT 9 19 11 21 20 23 17 25
ROOT
ATOM      1  C   UNL     1       0.245   0.450   0.167  1.00  0.00    +0.138 A 
ATOM      2  C   UNL     1      -0.329   1.590   0.578  1.00  0.00    +0.100 A 
ATOM      3  C   UNL     1      -1.795   1.661   0.660  1.00  0.00    +0.197 A 
ATOM      4  O   UNL     1      -2.370   2.678   1.032  1.00  0.00    -0.289 OA
ATOM      5  C   UNL     1      -2.545   0.460   0.276  1.00  0.00    +0.107 A 
ATOM      6  C   UNL     1      -3.942   0.423   0.310  1.00  0.00    +0.134 A 
ATOM      7  C   UNL     1      -4.618  -0.736  -0.063  1.00  0.00    +0.093 A 
ATOM      8  C   UNL     1      -3.892  -1.852  -0.469  1.00  0.00    +0.123 A 
ATOM      9  C   UNL     1      -2.499  -1.829  -0.506  1.00  0.00    +0.094 A 
ATOM     10  C   UNL     1      -1.827  -0.664  -0.130  1.00  0.00    +0.146 A 
ATOM     11  O   UNL     1      -0.456  -0.695  -0.181  1.00  0.00    -0.456 OA
ENDROOT
BRANCH   1  12
ATOM     12  C   UNL     1       1.711   0.312   0.075  1.00  0.00    +0.021 A 
ATOM     13  C   UNL     1       2.335  -0.864   0.534  1.00  0.00    +0.016 A 
ATOM     14  C   UNL     1       3.723  -1.027   0.453  1.00  0.00    +0.051 A 
ATOM     15  C   UNL     1       4.491  -0.010  -0.097  1.00  0.00    +0.157 A 
ATOM     16  C   UNL     1       2.507   1.322  -0.485  1.00  0.00    +0.062 A 
ATOM     17  C   UNL     1       3.884   1.153  -0.562  1.00  0.00    +0.158 A 
BRANCH  15  18
ATOM     18  O   UNL     1       5.850  -0.105  -0.206  1.00  0.00    -0.504 OA
ATOM     19  H   UNL     1       6.125  -0.964   0.159  1.00  0.00    +0.293 HD
ENDBRANCH  15  18
BRANCH  17  20
ATOM     20  O   UNL     1       4.644   2.147  -1.108  1.00  0.00    -0.504 OA
ATOM     21  H   UNL     1       5.562   1.811  -1.059  1.00  0.00    +0.293 HD
ENDBRANCH  17  20
ENDBRANCH   1  12
BRANCH   6  22
ATOM     22  O   UNL     1      -4.706   1.490   0.700  1.00  0.00    -0.507 OA
ATOM     23  H   UNL     1      -4.104   2.232   0.932  1.00  0.00    +0.293 HD
ENDBRANCH   6  22
BRANCH   8  24
ATOM     24  O   UNL     1      -4.591  -2.966  -0.828  1.00  0.00    -0.508 OA
ATOM     25  H   UNL     1      -3.971  -3.660  -1.105  1.00  0.00    +0.293 HD
ENDBRANCH   8  24
TORSDOF 5
