REMARK SMILES O=c1cc(-c2ccccc2)oc2cc(O)c(O)c(O)c12
REMARK SMILES IDX 4 1 3 2 2 3 1 4 20 5 12 6 11 7 13 8 14 9 16 10 18 11 5 12
REMARK SMILES IDX 8 13 7 14 9 15 6 16 10 17 19 18 15 20 17 22
REMARK H PARENT 19 19 15 21 17 23
ROOT
ATOM      1  C   UNL     1      -0.973   0.249  -0.185  1.00  0.00    +0.138 A 
ATOM      2  C   UNL     1      -0.583   1.243  -0.997  1.00  0.00    +0.100 A 
ATOM      3  C   UNL     1       0.852   1.447  -1.234  1.00  0.00    +0.197 A 
ATOM      4  O   UNL     1       1.268   2.333  -1.972  1.00  0.00    -0.289 OA
ATOM      5  C   UNL     1       1.779   0.541  -0.549  1.00  0.00    +0.111 A 
ATOM      6  C   UNL     1       1.246  -0.451   0.279  1.00  0.00    +0.146 A 
ATOM      7  O   UNL     1      -0.104  -0.607   0.475  1.00  0.00    -0.456 OA
ATOM      8  C   UNL     1       2.092  -1.336   0.952  1.00  0.00    +0.098 A 
ATOM      9  C   UNL     1       3.466  -1.216   0.786  1.00  0.00    +0.165 A 
ATOM     10  C   UNL     1       3.998  -0.229  -0.038  1.00  0.00    +0.201 A 
ATOM     11  C   UNL     1       3.162   0.654  -0.711  1.00  0.00    +0.176 A 
ENDROOT
BRANCH   1  12
ATOM     12  C   UNL     1      -2.399  -0.001   0.102  1.00  0.00    +0.017 A 
ATOM     13  C   UNL     1      -5.104  -0.506   0.684  1.00  0.00    +0.000 A 
ATOM     14  C   UNL     1      -4.154  -0.539   1.702  1.00  0.00    +0.001 A 
ATOM     15  C   UNL     1      -4.712  -0.230  -0.623  1.00  0.00    +0.001 A 
ATOM     16  C   UNL     1      -2.810  -0.291   1.412  1.00  0.00    +0.012 A 
ATOM     17  C   UNL     1      -3.368   0.019  -0.914  1.00  0.00    +0.012 A 
ENDBRANCH   1  12
BRANCH  11  18
ATOM     18  O   UNL     1       3.761   1.599  -1.504  1.00  0.00    -0.504 OA
ATOM     19  H   UNL     1       3.047   2.145  -1.908  1.00  0.00    +0.293 HD
ENDBRANCH  11  18
BRANCH   9  20
ATOM     20  O   UNL     1       4.296  -2.077   1.442  1.00  0.00    -0.504 OA
ATOM     21  H   UNL     1       5.199  -1.807   1.176  1.00  0.00    +0.293 HD
ENDBRANCH   9  20
BRANCH  10  22
ATOM     22  O   UNL     1       5.357  -0.142  -0.176  1.00  0.00    -0.502 OA
ATOM     23  H   UNL     1       5.491   0.610  -0.791  1.00  0.00    +0.293 HD
ENDBRANCH  10  22
TORSDOF 4
